[Molden Format]
made by pyscf v[2.9.0]
[Atoms] (AU)
C   1   6    -5.63386884105769     1.79722781021985    -1.00384897353470
C   2   6    -6.55125717521517    -0.66943358990105    -0.73451197817882
C   3   6    -4.91098623744944    -2.66185688070560    -0.31169709616413
C   4   6    -2.32777597859599    -2.15547075055815    -0.16055680072142
C   5   6    -1.37777286125464     0.30124691069529    -0.42567781709340
C   6   6    -3.07145501820508     2.29176346784015    -0.85282962056396
C   7   6     1.36654977780085     0.37876536605107    -0.20006908425995
C   8   6     2.99291422101590     2.46303690541398    -0.35428207438121
C   9   6     5.56929878910742     2.11364922169540    -0.08285315220543
C   10   6     6.56722914041999    -0.29893766537107     0.34394149302759
C   11   6     4.99429859310314    -2.38208292796374     0.50259911899382
C   12   6     2.39676043077324    -2.02203718890261     0.22784427883881
S   13   16     0.07265996948953    -4.39986445363383     0.36337732621874
H   14   1    -6.94857398263110     3.33817663260456    -1.33483450425228
H   15   1    -8.56941853583629    -1.02657481990872    -0.85803014685877
H   16   1    -5.62408383918469    -4.57600015652617    -0.10279732172409
H   17   1    -2.39167517777203     4.22295018357817    -1.06701306924829
H   18   1     2.25003264583138     4.35404993346987    -0.68542256264099
H   19   1     6.83189095334370     3.72737895604161    -0.20196070011064
H   20   1     8.59532101182571    -0.54178447991280     0.55306614487646
H   21   1     5.76991211449125    -4.25420247422623     0.83389078534357
[GTO]
1 0
 s    5 1.00
          1238.4016938  0.0055173650481097
          186.29004992   0.041088828555946
          42.251176346     0.1822538212649
          11.676557932    0.46828459437429
          3.5930506482    0.44575817336002
 s    1 1.00
         0.40245147363                   1
 s    1 1.00
         0.13090182668                   1
 p    3 1.00
          9.4680970621   0.056888332011037
          2.0103545142    0.31294059336471
         0.54771004707    0.76065016509135
 p    1 1.00
         0.15268613795                   1
 d    1 1.00
                   0.8                   1

2 0
 s    5 1.00
          1238.4016938  0.0055173650481097
          186.29004992   0.041088828555946
          42.251176346     0.1822538212649
          11.676557932    0.46828459437429
          3.5930506482    0.44575817336002
 s    1 1.00
         0.40245147363                   1
 s    1 1.00
         0.13090182668                   1
 p    3 1.00
          9.4680970621   0.056888332011037
          2.0103545142    0.31294059336471
         0.54771004707    0.76065016509135
 p    1 1.00
         0.15268613795                   1
 d    1 1.00
                   0.8                   1

3 0
 s    5 1.00
          1238.4016938  0.0055173650481097
          186.29004992   0.041088828555946
          42.251176346     0.1822538212649
          11.676557932    0.46828459437429
          3.5930506482    0.44575817336002
 s    1 1.00
         0.40245147363                   1
 s    1 1.00
         0.13090182668                   1
 p    3 1.00
          9.4680970621   0.056888332011037
          2.0103545142    0.31294059336471
         0.54771004707    0.76065016509135
 p    1 1.00
         0.15268613795                   1
 d    1 1.00
                   0.8                   1

4 0
 s    5 1.00
          1238.4016938  0.0055173650481097
          186.29004992   0.041088828555946
          42.251176346     0.1822538212649
          11.676557932    0.46828459437429
          3.5930506482    0.44575817336002
 s    1 1.00
         0.40245147363                   1
 s    1 1.00
         0.13090182668                   1
 p    3 1.00
          9.4680970621   0.056888332011037
          2.0103545142    0.31294059336471
         0.54771004707    0.76065016509135
 p    1 1.00
         0.15268613795                   1
 d    1 1.00
                   0.8                   1

5 0
 s    5 1.00
          1238.4016938  0.0055173650481097
          186.29004992   0.041088828555946
          42.251176346     0.1822538212649
          11.676557932    0.46828459437429
          3.5930506482    0.44575817336002
 s    1 1.00
         0.40245147363                   1
 s    1 1.00
         0.13090182668                   1
 p    3 1.00
          9.4680970621   0.056888332011037
          2.0103545142    0.31294059336471
         0.54771004707    0.76065016509135
 p    1 1.00
         0.15268613795                   1
 d    1 1.00
                   0.8                   1

6 0
 s    5 1.00
          1238.4016938  0.0055173650481097
          186.29004992   0.041088828555946
          42.251176346     0.1822538212649
          11.676557932    0.46828459437429
          3.5930506482    0.44575817336002
 s    1 1.00
         0.40245147363                   1
 s    1 1.00
         0.13090182668                   1
 p    3 1.00
          9.4680970621   0.056888332011037
          2.0103545142    0.31294059336471
         0.54771004707    0.76065016509135
 p    1 1.00
         0.15268613795                   1
 d    1 1.00
                   0.8                   1

7 0
 s    5 1.00
          1238.4016938  0.0055173650481097
          186.29004992   0.041088828555946
          42.251176346     0.1822538212649
          11.676557932    0.46828459437429
          3.5930506482    0.44575817336002
 s    1 1.00
         0.40245147363                   1
 s    1 1.00
         0.13090182668                   1
 p    3 1.00
          9.4680970621   0.056888332011037
          2.0103545142    0.31294059336471
         0.54771004707    0.76065016509135
 p    1 1.00
         0.15268613795                   1
 d    1 1.00
                   0.8                   1

8 0
 s    5 1.00
          1238.4016938  0.0055173650481097
          186.29004992   0.041088828555946
          42.251176346     0.1822538212649
          11.676557932    0.46828459437429
          3.5930506482    0.44575817336002
 s    1 1.00
         0.40245147363                   1
 s    1 1.00
         0.13090182668                   1
 p    3 1.00
          9.4680970621   0.056888332011037
          2.0103545142    0.31294059336471
         0.54771004707    0.76065016509135
 p    1 1.00
         0.15268613795                   1
 d    1 1.00
                   0.8                   1

9 0
 s    5 1.00
          1238.4016938  0.0055173650481097
          186.29004992   0.041088828555946
          42.251176346     0.1822538212649
          11.676557932    0.46828459437429
          3.5930506482    0.44575817336002
 s    1 1.00
         0.40245147363                   1
 s    1 1.00
         0.13090182668                   1
 p    3 1.00
          9.4680970621   0.056888332011037
          2.0103545142    0.31294059336471
         0.54771004707    0.76065016509135
 p    1 1.00
         0.15268613795                   1
 d    1 1.00
                   0.8                   1

10 0
 s    5 1.00
          1238.4016938  0.0055173650481097
          186.29004992   0.041088828555946
          42.251176346     0.1822538212649
          11.676557932    0.46828459437429
          3.5930506482    0.44575817336002
 s    1 1.00
         0.40245147363                   1
 s    1 1.00
         0.13090182668                   1
 p    3 1.00
          9.4680970621   0.056888332011037
          2.0103545142    0.31294059336471
         0.54771004707    0.76065016509135
 p    1 1.00
         0.15268613795                   1
 d    1 1.00
                   0.8                   1

11 0
 s    5 1.00
          1238.4016938  0.0055173650481097
          186.29004992   0.041088828555946
          42.251176346     0.1822538212649
          11.676557932    0.46828459437429
          3.5930506482    0.44575817336002
 s    1 1.00
         0.40245147363                   1
 s    1 1.00
         0.13090182668                   1
 p    3 1.00
          9.4680970621   0.056888332011037
          2.0103545142    0.31294059336471
         0.54771004707    0.76065016509135
 p    1 1.00
         0.15268613795                   1
 d    1 1.00
                   0.8                   1

12 0
 s    5 1.00
          1238.4016938  0.0055173650481097
          186.29004992   0.041088828555946
          42.251176346     0.1822538212649
          11.676557932    0.46828459437429
          3.5930506482    0.44575817336002
 s    1 1.00
         0.40245147363                   1
 s    1 1.00
         0.13090182668                   1
 p    3 1.00
          9.4680970621   0.056888332011037
          2.0103545142    0.31294059336471
         0.54771004707    0.76065016509135
 p    1 1.00
         0.15268613795                   1
 d    1 1.00
                   0.8                   1

13 0
 s    5 1.00
           9184.930301  -0.0054729466134731
          1381.5105503  -0.040954402155135
           313.8714758   -0.18475828956188
          88.053870623   -0.47567280643953
          27.039914905   -0.43495153584169
 s    3 1.00
          45.648731303  -0.091904045808942
          4.9664522326    0.55698777214497
          2.0116242047     0.5111546829846
 s    1 1.00
         0.35661077013                   1
 s    1 1.00
         0.13507221477                   1
 p    5 1.00
          261.98233439  -0.009183054659266
          61.306894736   -0.06590222652599
          19.103729887   -0.24587784518735
          6.6567720378    -0.4823147107602
          2.3959635161   -0.38956314351423
 p    1 1.00
         0.61776161679                   1
 p    1 1.00
         0.16993376871                   1
 d    1 1.00
                  0.55                   1

14 0
 s    3 1.00
             13.010701   0.033485484812989
             1.9622572    0.23472187088125
            0.44453796    0.81377028525955
 s    1 1.00
            0.12194962                   1
 p    1 1.00
                   0.8                   1

15 0
 s    3 1.00
             13.010701   0.033485484812989
             1.9622572    0.23472187088125
            0.44453796    0.81377028525955
 s    1 1.00
            0.12194962                   1
 p    1 1.00
                   0.8                   1

16 0
 s    3 1.00
             13.010701   0.033485484812989
             1.9622572    0.23472187088125
            0.44453796    0.81377028525955
 s    1 1.00
            0.12194962                   1
 p    1 1.00
                   0.8                   1

17 0
 s    3 1.00
             13.010701   0.033485484812989
             1.9622572    0.23472187088125
            0.44453796    0.81377028525955
 s    1 1.00
            0.12194962                   1
 p    1 1.00
                   0.8                   1

18 0
 s    3 1.00
             13.010701   0.033485484812989
             1.9622572    0.23472187088125
            0.44453796    0.81377028525955
 s    1 1.00
            0.12194962                   1
 p    1 1.00
                   0.8                   1

19 0
 s    3 1.00
             13.010701   0.033485484812989
             1.9622572    0.23472187088125
            0.44453796    0.81377028525955
 s    1 1.00
            0.12194962                   1
 p    1 1.00
                   0.8                   1

20 0
 s    3 1.00
             13.010701   0.033485484812989
             1.9622572    0.23472187088125
            0.44453796    0.81377028525955
 s    1 1.00
            0.12194962                   1
 p    1 1.00
                   0.8                   1

21 0
 s    3 1.00
             13.010701   0.033485484812989
             1.9622572    0.23472187088125
            0.44453796    0.81377028525955
 s    1 1.00
            0.12194962                   1
 p    1 1.00
                   0.8                   1

[5d]
[7f]
[9g]

[MO]
 Sym= A
 Ene=               0
 Spin= Alpha
 Occup=    2.00000
   1    -1.1722077071414e-06
   2    0.00011651041651661
   3    -0.0059219812389745
   4    1.3738028874105e-05
   5    -1.1533471589367e-05
   6    2.8132459588186e-06
   7    -0.0019080914983784
   8    0.0016809978152279
   9    -0.00040191093782426
  10    2.8888939940343e-05
  11    -2.3020076359439e-06
  12    5.3297734792606e-06
  13    -3.0690584242819e-06
  14    -1.6690283155257e-05
  15    -1.2466148995982e-05
  16    4.9142436344512e-06
  17    0.0076557823910898
  18    2.6480212539756e-05
  19    -6.3659480184945e-05
  20    1.1274276621266e-05
  21    0.0030883700283571
  22    -0.00043134966716478
  23    0.00032713734045312
  24    -4.0347632838583e-05
  25    7.9788391340732e-06
  26    -1.5404685613438e-05
  27    -2.1081955401982e-05
  28    -2.4958158956736e-05
  29    1.0926459862527e-05
  30    7.1081137313784e-05
  31    -0.0096056474206316
  32    -0.00014186252280521
  33    0.00010927736850118
  34    -2.7663705251295e-05
  35    -0.0008610105222444
  36    -0.0045577901859035
  37    0.00056956583845433
  38    4.4715129769907e-05
  39    -2.0710693777855e-05
  40    9.6325555294976e-06
  41    -5.2363593671207e-05
  42     6.54878461571e-05
  43    6.2510107371781e-05
  44    -0.00049189023012603
  45     0.010088675015485
  46    6.4402856680461e-05
  47    -8.3094483539619e-06
  48    6.7249259455708e-06
  49    -0.0033869353560101
  50     0.003419819748386
  51    -0.00077499296199837
  52    7.1353664429539e-05
  53    -6.1235320496286e-05
  54    4.7909379663299e-05
  55    -7.6514657829023e-06
  56    0.00034608150253144
  57    3.5102313678692e-05
  58    -0.00036646485962284
  59    -0.0086448971205815
  60    -0.00022452202491332
  61    0.00010144075046456
  62    -3.3682251675953e-05
  63    0.0044586534996904
  64    0.00016453426133447
  65    0.00036108727072488
  66    2.0866213164032e-05
  67    8.1934660418413e-06
  68    5.0828108333611e-06
  69    3.5482065819644e-05
  70    -5.8417414278246e-05
  71    -1.2183331072644e-05
  72    5.0576328179168e-05
  73    0.0074573709976783
  74    5.0461578056968e-05
  75    -3.5676499491761e-05
  76    9.3889780274595e-06
  77    -0.00089124935029337
  78    -0.0028878162378887
  79    0.00033108069102328
  80    -2.5243289004266e-05
  81    4.6307737559318e-06
  82    -8.1039964963623e-06
  83    -6.5254865727146e-06
  84    -9.1441530668502e-06
  85    3.5102911326672e-05
  86    -0.00036646542469274
  87    -0.0086450834270753
  88    0.00022096361685531
  89    0.00011401915691997
  90    2.9419338805611e-06
  91    -0.0044598696343176
  92    -8.7238699126761e-05
  93    -0.00037210808617522
  94     1.84513372321e-05
  95    -8.94538825527e-06
  96    1.4386453537832e-05
  97    3.0157161504044e-05
  98    6.0520478580655e-05
  99    -1.2182854816782e-05
 100    5.0572810959726e-05
 101    0.0074573105183196
 102    -4.9237204705962e-05
 103    -3.8492183774045e-05
 104    1.1929933853003e-06
 105    0.00098578264236127
 106    -0.0028347692585759
 107    0.00048538101406736
 108    -2.5622656356799e-05
 109    1.9314689564485e-06
 110    -6.6384729684233e-06
 111    -7.365328385389e-06
 112    9.5871002430701e-06
 113    -1.1726188454457e-06
 114    0.00011651841163425
 115    -0.0059218678090828
 116    -1.3344763445598e-05
 117    -1.2297765038225e-05
 118    5.8698778894918e-07
 119    0.0018508236026423
 120    0.0017871467543989
 121    -9.2896527005758e-05
 122    2.8241944450005e-05
 123    -6.8911875837994e-06
 124    7.8212630078735e-06
 125    -4.4935353861085e-06
 126    1.5158272863829e-05
 127    -1.2467020433588e-05
 128    4.9325198011792e-06
 129    0.0076560453650488
 130    -2.4355444973345e-05
 131    -6.5097562295405e-05
 132    7.0958119584611e-06
 133    -0.003071292613833
 134    -0.0006053703394549
 135    -0.00017923254127813
 136    -4.1354424668819e-05
 137    8.2515799185137e-07
 138    -1.1521588472361e-05
 139    -2.3306579838145e-05
 140    2.4685369309103e-05
 141    1.0927282405753e-05
 142    7.108110989031e-05
 143    -0.0096059362501914
 144    0.00013811877696076
 145    0.00011718373173157
 146    -4.6464702009121e-06
 147    0.0010106644421902
 148    -0.0045049889777265
 149    0.00072343673178732
 150    4.7510829406805e-05
 151    -9.2620634876568e-07
 152    -1.1057195474968e-06
 153    -4.6213966966503e-05
 154    -7.1816426785831e-05
 155    6.251162210352e-05
 156    -0.00049190288382644
 157     0.010088726360088
 158    -6.4068958425992e-05
 159    -1.1934372736829e-05
 160    -3.836705137021e-06
 161    0.0032708683285126
 162    0.0036078999764737
 163    -0.00022767498088948
 164    8.5476021819765e-05
 165    3.8874339144633e-05
 166    -6.4300589858185e-06
 167    2.3458391613282e-05
 168    -0.00034865508106841
 169      0.99429364879092
 170    -0.021506514123255
 171    0.0099615319755298
 172    -0.0053003650416419
 173    -3.4082131136463e-06
 174    0.0002064032490837
 175    -2.9448215325552e-05
 176    -1.2142896465479e-05
 177    0.00073529859310822
 178    -0.00010490756157872
 179    1.2407552944881e-05
 180    -0.00075091431861873
 181    0.00010713627182253
 182    5.9594665762462e-06
 183    1.9025423048148e-06
 184    6.7196073238492e-06
 185    3.557163031815e-05
 186    1.4643278720243e-06
 187    -0.00013893431278062
 188    -0.00014858554205276
 189    2.5297013587048e-05
 190    -1.2815987568527e-05
 191    3.9903518179768e-06
 192    0.00013629192005611
 193    9.4314988256918e-05
 194    -3.7860965846206e-05
 195    3.7732872825225e-05
 196    -8.5929296832843e-06
 197    -0.00046238226379152
 198    -0.00029105766550716
 199    -2.9927842932427e-05
 200    3.9046590546822e-05
 201    -8.0957144735163e-06
 202    0.00015731775777105
 203    0.0001629862454273
 204    1.0521941899392e-05
 205    2.6270360122891e-05
 206    -2.8038828455785e-06
 207    0.00015731710215239
 208    0.00016298190800436
 209    -1.1381892262827e-05
 210    2.5651139892928e-05
 211    -4.6041150612307e-06
 212    -0.00013893448778072
 213    -0.00014860046500822
 214    -2.4852279223113e-05
 215    -1.4232364769515e-05
 216    -1.3200167665566e-07
 217    0.00013629390745972
 218    9.4294999713844e-05
 219    3.6578006475868e-05
 220    3.9835340516089e-05
 221    -2.474068750053e-06
 222    -0.00046238117441731
 223    -0.0002910312524498
 224    2.860747715186e-05
 225    4.0697451802667e-05
 226    -3.2818997142939e-06
 Sym= A
 Ene=               1
 Spin= Alpha
 Occup=    2.00000
   1    0.00047270181865976
   2    0.00086215973863712
   3    0.0077191645324286
   4    7.8814424588455e-05
   5    -0.00012108316385294
   6    2.3896592697955e-05
   7    0.0035275413217094
   8    0.0024809357010742
   9    -4.6372062789133e-05
  10    6.4334587158216e-05
  11    -1.9748873301674e-05
  12    1.6225369195518e-05
  13    -3.1250088479825e-05
  14    5.0305421093912e-05
  15    -0.00031574350882698
  16    0.00017511147951559
  17    -0.0033699610882018
  18    -6.8648427590777e-06
  19    0.00020559890080305
  20    -2.96324246741e-05
  21    -0.0027538318191793
  22    0.0010634318833145
  23    -0.00038758027397756
  24    8.730999192877e-05
  25    -3.0533546216979e-05
  26    1.8530955593103e-05
  27    -7.2082983079313e-05
  28    7.6690491316671e-05
  29    -0.015774416864244
  30    0.0011644333232554
  31    0.0026206969571803
  32    0.0010032659473182
  33    2.408931233823e-05
  34    8.3076129807615e-05
  35    -0.00052496920583454
  36    0.0046299453792306
  37    -0.00069922755063561
  38    -0.00035565273291625
  39    6.1322384007026e-05
  40    -3.7662861420018e-05
  41    0.00028530448612162
  42    0.0001223546978673
  43     -0.69227184274688
  44    -0.025415364853454
  45    -0.0040249219802516
  46    -0.00025130214864583
  47    -0.00028142034663394
  48    1.8086975127592e-05
  49    0.0012291631883445
  50    -0.010166593053725
  51    0.0015419822019643
  52    0.00085476612914836
  53    -6.976361755066e-05
  54    0.00018643420241838
  55    5.0304387406832e-05
  56    -0.00039861578308715
  57    -0.018056516801362
  58    0.00052942685823911
  59    -0.011380483121025
  60    4.1544710918992e-05
  61    -0.00020397063152191
  62    3.2392362359268e-05
  63    -0.012628792921936
  64    -0.021648562127759
  65    0.0019692545677554
  66    -0.00033757088727252
  67    -1.1439475078517e-05
  68    -0.00015258619077312
  69    -0.00054635747359083
  70    0.00011692792147087
  71    -7.2700453576374e-05
  72    0.00047493200047331
  73    0.0046186671952858
  74    -3.7791184823392e-05
  75    -1.4426729550802e-05
  76    -1.2190031619255e-06
  77     0.011981774164947
  78    0.00023480738298624
  79    0.00099963767668692
  80    7.8938977383867e-05
  81    2.7404701907999e-05
  82    6.1970902668504e-05
  83    0.00034050806902747
  84    -7.3554986114333e-05
  85     0.018466344971413
  86    -0.0005471328598815
  87     0.011530791000368
  88    2.5869382127638e-05
  89    0.00021979708200785
  90    -2.8815198920607e-05
  91    -0.013293090163052
  92     0.020983785630121
  93    -0.0041097996346231
  94    0.00033853295562912
  95    -2.9003536245071e-05
  96    0.00017715364657401
  97    0.00054183796904269
  98    0.00016137861552579
  99    8.1770356920882e-05
 100    -0.00047288392461481
 101    -0.0047152278900738
 102    -4.039264197631e-05
 103    1.0939069984077e-05
 104    -5.0263271373499e-06
 105     0.012057575088316
 106    0.00048613857746342
 107    0.0009706708926103
 108    -7.475345914105e-05
 109    -2.4476427409588e-06
 110    -7.564478792011e-05
 111    -0.00033392364605274
 112    -0.00010104472207789
 113    -0.00048154972848683
 114    -0.00087318536813538
 115    -0.0077779705307682
 116    7.5165454469026e-05
 117    0.00012787638366648
 118    -1.1583567521827e-05
 119    0.0036084250968691
 120    -0.0022976627155612
 121    0.00063558146062588
 122    -6.7034918577398e-05
 123    4.3764684136022e-06
 124    -7.9654602055418e-06
 125    2.6468676728135e-05
 126    5.6940986330565e-05
 127    0.00032288755162933
 128    -0.00017783387093716
 129    0.0033583872451051
 130    -6.4889579377824e-07
 131    -0.00021019063611661
 132    2.9633250347969e-05
 133    -0.0027430027255979
 134    -0.0011740442092128
 135    -7.0609491326184e-05
 136    -9.224167688007e-05
 137    7.1893944728977e-06
 138    -5.725571265205e-06
 139    6.6811004033257e-05
 140    8.8242783563707e-05
 141     0.016135319855979
 142    -0.0011820316092495
 143    -0.0025261873595957
 144    0.0010222583166997
 145    3.342367902375e-05
 146    8.3393790921414e-05
 147    -0.00033702433457509
 148    -0.0046756651497693
 149    0.00063137593388884
 150    0.00036139068023553
 151    -9.3176985042898e-05
 152    5.5056925534933e-05
 153    -0.00030278051057617
 154    8.3270909179153e-05
 155      0.70794712406189
 156      0.02596011262199
 157    0.0038012258501824
 158    -0.00026024865585017
 159    0.00027170462333989
 160    -6.0813288504736e-05
 161    0.00085830866449039
 162     0.010219788292318
 163    -0.0013695413213495
 164    -0.00085946000983624
 165    0.00018523126932586
 166    -0.00025086955967012
 167    -6.7697489032651e-06
 168    -0.0003757162955345
 169    7.6740865817712e-07
 170    5.2643835988142e-06
 171    -7.3926868022074e-06
 172    1.7087842922704e-05
 173    -0.00013319863252917
 174    -5.255982221232e-06
 175    -1.073914822595e-05
 176    -0.00044166318929473
 177    -1.6293672767686e-05
 178    -3.5769216723086e-05
 179    0.0033466105735046
 180    8.500667268856e-05
 181    0.00027646382543004
 182    3.777194715274e-05
 183    0.0001754528123032
 184    -9.2749749652696e-05
 185    5.6873487615164e-05
 186    -0.0012301428207551
 187    -0.00026190129536482
 188    -0.00074962512368634
 189    -7.3124561823777e-05
 190    -6.9887919639482e-05
 191    3.5687076393919e-06
 192    -0.00028551201135467
 193    -0.00044334866211494
 194    4.4976997129626e-05
 195    5.6218592990016e-06
 196    3.0823586713187e-06
 197    0.00041689399424287
 198    0.0010079777884723
 199    -0.0002753212447279
 200    -0.00015115399458201
 201    -2.3810873191237e-06
 202    -0.00069260475256714
 203    -0.0018392447986222
 204    -0.00034767838275742
 205    -2.3028483955995e-05
 206    -2.671641617898e-05
 207    0.0006954741975896
 208    0.0018477561509178
 209    -0.00035317470954232
 210    1.545440358937e-06
 211    -3.0661028239523e-05
 212    0.00026691173546532
 213    0.00075900349155728
 214    -7.5161791145957e-05
 215    6.6249443812026e-05
 216    -1.5836477025524e-05
 217    0.00029190433245608
 218    0.00045415334236398
 219    4.5888095123693e-05
 220    -5.7363132814514e-06
 221    4.765282722445e-06
 222    -0.00042400484861637
 223    -0.0010301012134071
 224    -0.00028827704583203
 225    0.0001363111248925
 226    -4.4101447982297e-05
 Sym= A
 Ene=               2
 Spin= Alpha
 Occup=    2.00000
   1    -0.00040044760615423
   2    -0.00050286505258078
   3    -0.0027311543950366
   4    -2.2927571662998e-05
   5    0.00010997975227432
   6    -1.751105713343e-05
   7    -0.00012241471245952
   8    -0.00085166334960939
   9    0.00010974746895103
  10    -2.3065905600961e-05
  11    1.2272111568601e-05
  12    -1.0514222256877e-05
  13    3.8251785981299e-06
  14    -5.8615633383474e-05
  15    0.00032349443664164
  16    -0.0001247491094317
  17    -0.00048897168369572
  18    3.2287565737225e-05
  19    -0.00019698539394617
  20    3.0606981948299e-05
  21     0.001161782644414
  22    0.0020124002807626
  23    -0.0001841059221832
  24    -6.997844798354e-05
  25    2.8684617195794e-05
  26    -9.5170437511711e-06
  27    9.8379661373863e-05
  28    -6.6746512788301e-05
  29     0.016393933991486
  30    -0.00079682593591946
  31    0.0042034624709826
  32    -0.00086713232342607
  33    -1.0553464350963e-05
  34    -7.3253713867097e-05
  35    -0.001506849721562
  36    -0.0010524144940258
  37    1.876376503703e-05
  38    0.00044901840275798
  39    -8.2581996337346e-05
  40    4.9558444314953e-05
  41    -0.00036642260287721
  42    -0.0001221774579034
  43      0.70802459195708
  44     0.024622974652722
  45    -0.0099347724543853
  46    -9.783456832183e-06
  47    0.00021370031158271
  48    -3.1026891540915e-05
  49    0.0015219229323961
  50    -9.1245767124108e-05
  51    0.00014407505634544
  52    -0.00093278715046418
  53    0.00010253391682463
  54    -0.000135905637463
  55    0.00037333420782175
  56    0.00050498032681627
  57      0.01860386900016
  58    -0.00079622968544802
  59    0.0068065896809892
  60    0.00037634924205161
  61    0.00063570899076332
  62    -5.7352266943261e-05
  63    -0.0016750806773594
  64    0.0031991748766898
  65    -0.00059627209246495
  66    0.00030833092702665
  67    4.7966719217029e-05
  68    9.2629084682179e-05
  69    0.00038053132861041
  70    -0.00043873325812127
  71    0.00040805469493198
  72    8.7871877005551e-05
  73    -0.0043227957623648
  74    9.9177427005548e-05
  75    -5.4170526197454e-05
  76    1.6200513493493e-05
  77    -0.003739823636819
  78    0.0017654877557592
  79    -0.00057173981063342
  80    2.7337149421172e-05
  81    -1.288703743128e-05
  82    5.5786608953691e-07
  83    -5.9887887549435e-05
  84    2.5067619228681e-05
  85     0.018193019304975
  86    -0.00078425519999223
  87     0.006550378270553
  88    -0.00039766031170173
  89    0.00060908774708715
  90    -0.00012031103595961
  91    0.0018666071019203
  92    0.0028219369792749
  93    -0.0002376978272464
  94    0.00028259419134113
  95    -8.0680487948452e-05
  96    0.00015887324907705
  97    0.00032830331811179
  98    0.00045490193768517
  99    0.00040630125773611
 100    9.8454999372599e-05
 101    -0.0042190134168619
 102    -9.6412132038013e-05
 103    -5.9976255346648e-05
 104    1.6109363760028e-07
 105    0.0034089892984663
 106    0.0019649379187271
 107    1.6300741132487e-05
 108    3.016721919744e-05
 109    -4.6868961316181e-06
 110    -2.1704576081248e-06
 111    -4.9889751824203e-05
 112    -2.9210207144767e-05
 113    -0.0003897725517903
 114    -0.00048343729519485
 115    -0.0025573561185786
 116    1.7596966571578e-05
 117    0.00010834007726143
 118    -1.3786144167073e-05
 119    6.9620340169943e-05
 120    -0.00079280761260487
 121    0.00011798479498414
 122    -2.3971156485985e-05
 123    -4.882080976979e-06
 124    -1.0781437149537e-06
 125    -2.06767343596e-06
 126    5.8474896344825e-05
 127    0.00031631600627428
 128    -0.00012078543986655
 129    -0.00056467280360628
 130    -2.5751204543753e-05
 131    -0.00019397144731606
 132    2.5178533789185e-05
 133    -0.0011658927539581
 134    0.0019717199493414
 135    -0.00037900030488789
 136    -7.087909507304e-05
 137    7.6362313208348e-06
 138    1.9494787657878e-06
 139    9.0411254466953e-05
 140    7.6261846434915e-05
 141     0.016034667230684
 142    -0.00077058013502311
 143    0.0042615262073685
 144    0.00084397765862204
 145    3.7670801193121e-05
 146    6.7426606280143e-05
 147    0.0015480455143548
 148    -0.00086171143953807
 149    0.00025515417330068
 150    0.00043713369488219
 151    -0.00010827759680511
 152    6.3406236436563e-05
 153    -0.00036837638819198
 154    6.8575083846054e-05
 155      0.69235129203501
 156     0.024047863438012
 157    -0.010022730388738
 158    8.5377951206025e-06
 159    0.00020803244673846
 160    -2.8650309373137e-05
 161    -0.0015373524825669
 162    -0.00040617615258325
 163    -7.5143884649373e-05
 164    -0.00089473555544753
 165    0.00023334226878358
 166    -0.00020356224470026
 167    0.00041550451875868
 168    -0.0004228875006975
 169    6.8517079695366e-05
 170    0.00046996653626855
 171    -0.00065930812036116
 172    0.0015254612253217
 173    3.6906637972044e-06
 174    -0.00013327090063212
 175    1.914258465428e-05
 176    1.0556363084958e-05
 177    -0.00034043057265675
 178    4.899558052743e-05
 179    -2.3471375409355e-05
 180    -0.00085039733710471
 181    0.00011809520014865
 182    0.0011405365284456
 183    -0.00016102912338252
 184    0.0003095488820549
 185    0.00016020140571509
 186    -2.9014736625905e-06
 187    0.00022664118532307