21
Properties=species:S:1:pos:R:3:forces:R:3 energy=-4.016465187072754 free_energy=-4.016465187072754 pbc="F F F"
C       -2.98131456       0.95105186      -0.53121417       0.00007072       0.00363575      -0.00050959
C       -3.46677633      -0.35424887      -0.38868659       0.00167501       0.00282049      -0.00026393
C       -2.59878249      -1.40859386      -0.16494255      -0.00191987       0.00131464      -0.00035650
C       -1.23180598      -1.14062562      -0.08496258      -0.00098968      -0.00191832       0.00019048
C       -0.72908583       0.15941253      -0.22525851       0.00002086      -0.00319386       0.00045902
C       -1.62534417       1.21274870      -0.45129756       0.00228095      -0.00166988       0.00043643
C        0.72314733       0.20043398      -0.10587169      -0.00038600      -0.00390935       0.00051054
C        1.58378236       1.30338282      -0.18747782      -0.00097394      -0.00136042       0.00010087
C        2.94714646       1.11849458      -0.04384413      -0.00137925       0.00318262      -0.00056642
C        3.47522844      -0.15819146       0.18200615      -0.00053704       0.00377226      -0.00057065
C        2.64286875      -1.26054409       0.26596441       0.00096142       0.00021863       0.00005889
C        1.26831094      -1.07001559       0.12057001       0.00137520      -0.00167358       0.00034961
S        0.03844991      -2.32830812       0.19229124       0.00006402      -0.00134397       0.00019390
H       -3.67702745       1.76648695      -0.70636354      -0.00241183       0.00338142      -0.00068396
H       -4.53474078      -0.54323988      -0.45404960       0.00192674      -0.00309975       0.00060837
H       -2.97613712      -2.42151473      -0.05439751       0.00043296       0.00021378       0.00001179
H       -1.26562049       2.23468931      -0.56463886      -0.00387079      -0.00081096      -0.00021941
H        1.19066633       2.30406368      -0.36271033       0.00382161      -0.00058889       0.00041611
H        3.61528056       1.97244402      -0.10687253       0.00254370       0.00376339      -0.00031086
H        4.54844847      -0.28669963       0.29266985      -0.00220463      -0.00323598       0.00025848
H        3.05330589      -2.25122653       0.44127571      -0.00049899       0.00050141      -0.00011324
