[Molden Format]
made by pyscf v[2.9.0]
[Atoms] (AU)
C   1   6     4.53154245971965    -1.49616987213702    -0.18742492676049
C   2   6     4.62528421385482     1.18037962918707    -0.14876868915638
C   3   6     2.43804716714274     2.56120439813289    -0.04795369013696
C   4   6     0.04689922295946     1.33942842846109     0.01934512633717
C   5   6    -2.25300707475145     2.72298385165690     0.12426650022527
C   6   6    -4.53156513643314     1.49616798241089     0.18742114730824
C   7   6    -4.62525964741520    -1.18038718809157     0.14876679943026
C   8   6    -2.43806606440398    -2.56119117005002     0.04795369013696
C   9   6    -0.04690111268558    -1.33942653873497    -0.01934134688492
C   10   6     2.25302597201269    -2.72297629275241    -0.12426461049915
H   11   1     6.28102822912849    -2.56816992862804    -0.26755687334654
H   12   1     6.44551377046288     2.12927347729330    -0.19970247739179
H   13   1     2.49725795580373     4.61637604490362    -0.01780877899790
H   14   1    -2.16832466765744     4.77727488605359     0.15346654830205
H   15   1    -6.28102444967624     2.56816803890191     0.26754553498980
H   16   1    -6.44551943964125    -2.12927725674555     0.19971759520078
H   17   1    -2.49725795580373    -4.61637982435587     0.01779555091503
H   18   1     2.16832277793132    -4.77727866550584    -0.15345520994531
[GTO]
1 0
 s    5 1.00
          1238.4016938  0.0055173650481097
          186.29004992   0.041088828555946
          42.251176346     0.1822538212649
          11.676557932    0.46828459437429
          3.5930506482    0.44575817336002
 s    1 1.00
         0.40245147363                   1
 s    1 1.00
         0.13090182668                   1
 p    3 1.00
          9.4680970621   0.056888332011037
          2.0103545142    0.31294059336471
         0.54771004707    0.76065016509135
 p    1 1.00
         0.15268613795                   1
 d    1 1.00
                   0.8                   1

2 0
 s    5 1.00
          1238.4016938  0.0055173650481097
          186.29004992   0.041088828555946
          42.251176346     0.1822538212649
          11.676557932    0.46828459437429
          3.5930506482    0.44575817336002
 s    1 1.00
         0.40245147363                   1
 s    1 1.00
         0.13090182668                   1
 p    3 1.00
          9.4680970621   0.056888332011037
          2.0103545142    0.31294059336471
         0.54771004707    0.76065016509135
 p    1 1.00
         0.15268613795                   1
 d    1 1.00
                   0.8                   1

3 0
 s    5 1.00
          1238.4016938  0.0055173650481097
          186.29004992   0.041088828555946
          42.251176346     0.1822538212649
          11.676557932    0.46828459437429
          3.5930506482    0.44575817336002
 s    1 1.00
         0.40245147363                   1
 s    1 1.00
         0.13090182668                   1
 p    3 1.00
          9.4680970621   0.056888332011037
          2.0103545142    0.31294059336471
         0.54771004707    0.76065016509135
 p    1 1.00
         0.15268613795                   1
 d    1 1.00
                   0.8                   1

4 0
 s    5 1.00
          1238.4016938  0.0055173650481097
          186.29004992   0.041088828555946
          42.251176346     0.1822538212649
          11.676557932    0.46828459437429
          3.5930506482    0.44575817336002
 s    1 1.00
         0.40245147363                   1
 s    1 1.00
         0.13090182668                   1
 p    3 1.00
          9.4680970621   0.056888332011037
          2.0103545142    0.31294059336471
         0.54771004707    0.76065016509135
 p    1 1.00
         0.15268613795                   1
 d    1 1.00
                   0.8                   1

5 0
 s    5 1.00
          1238.4016938  0.0055173650481097
          186.29004992   0.041088828555946
          42.251176346     0.1822538212649
          11.676557932    0.46828459437429
          3.5930506482    0.44575817336002
 s    1 1.00
         0.40245147363                   1
 s    1 1.00
         0.13090182668                   1
 p    3 1.00
          9.4680970621   0.056888332011037
          2.0103545142    0.31294059336471
         0.54771004707    0.76065016509135
 p    1 1.00
         0.15268613795                   1
 d    1 1.00
                   0.8                   1

6 0
 s    5 1.00
          1238.4016938  0.0055173650481097
          186.29004992   0.041088828555946
          42.251176346     0.1822538212649
          11.676557932    0.46828459437429
          3.5930506482    0.44575817336002
 s    1 1.00
         0.40245147363                   1
 s    1 1.00
         0.13090182668                   1
 p    3 1.00
          9.4680970621   0.056888332011037
          2.0103545142    0.31294059336471
         0.54771004707    0.76065016509135
 p    1 1.00
         0.15268613795                   1
 d    1 1.00
                   0.8                   1

7 0
 s    5 1.00
          1238.4016938  0.0055173650481097
          186.29004992   0.041088828555946
          42.251176346     0.1822538212649
          11.676557932    0.46828459437429
          3.5930506482    0.44575817336002
 s    1 1.00
         0.40245147363                   1
 s    1 1.00
         0.13090182668                   1
 p    3 1.00
          9.4680970621   0.056888332011037
          2.0103545142    0.31294059336471
         0.54771004707    0.76065016509135
 p    1 1.00
         0.15268613795                   1
 d    1 1.00
                   0.8                   1

8 0
 s    5 1.00
          1238.4016938  0.0055173650481097
          186.29004992   0.041088828555946
          42.251176346     0.1822538212649
          11.676557932    0.46828459437429
          3.5930506482    0.44575817336002
 s    1 1.00
         0.40245147363                   1
 s    1 1.00
         0.13090182668                   1
 p    3 1.00
          9.4680970621   0.056888332011037
          2.0103545142    0.31294059336471
         0.54771004707    0.76065016509135
 p    1 1.00
         0.15268613795                   1
 d    1 1.00
                   0.8                   1

9 0
 s    5 1.00
          1238.4016938  0.0055173650481097
          186.29004992   0.041088828555946
          42.251176346     0.1822538212649
          11.676557932    0.46828459437429
          3.5930506482    0.44575817336002
 s    1 1.00
         0.40245147363                   1
 s    1 1.00
         0.13090182668                   1
 p    3 1.00
          9.4680970621   0.056888332011037
          2.0103545142    0.31294059336471
         0.54771004707    0.76065016509135
 p    1 1.00
         0.15268613795                   1
 d    1 1.00
                   0.8                   1

10 0
 s    5 1.00
          1238.4016938  0.0055173650481097
          186.29004992   0.041088828555946
          42.251176346     0.1822538212649
          11.676557932    0.46828459437429
          3.5930506482    0.44575817336002
 s    1 1.00
         0.40245147363                   1
 s    1 1.00
         0.13090182668                   1
 p    3 1.00
          9.4680970621   0.056888332011037
          2.0103545142    0.31294059336471
         0.54771004707    0.76065016509135
 p    1 1.00
         0.15268613795                   1
 d    1 1.00
                   0.8                   1

11 0
 s    3 1.00
             13.010701   0.033485484812989
             1.9622572    0.23472187088125
            0.44453796    0.81377028525955
 s    1 1.00
            0.12194962                   1
 p    1 1.00
                   0.8                   1

12 0
 s    3 1.00
             13.010701   0.033485484812989
             1.9622572    0.23472187088125
            0.44453796    0.81377028525955
 s    1 1.00
            0.12194962                   1
 p    1 1.00
                   0.8                   1

13 0
 s    3 1.00
             13.010701   0.033485484812989
             1.9622572    0.23472187088125
            0.44453796    0.81377028525955
 s    1 1.00
            0.12194962                   1
 p    1 1.00
                   0.8                   1

14 0
 s    3 1.00
             13.010701   0.033485484812989
             1.9622572    0.23472187088125
            0.44453796    0.81377028525955
 s    1 1.00
            0.12194962                   1
 p    1 1.00
                   0.8                   1

15 0
 s    3 1.00
             13.010701   0.033485484812989
             1.9622572    0.23472187088125
            0.44453796    0.81377028525955
 s    1 1.00
            0.12194962                   1
 p    1 1.00
                   0.8                   1

16 0
 s    3 1.00
             13.010701   0.033485484812989
             1.9622572    0.23472187088125
            0.44453796    0.81377028525955
 s    1 1.00
            0.12194962                   1
 p    1 1.00
                   0.8                   1

17 0
 s    3 1.00
             13.010701   0.033485484812989
             1.9622572    0.23472187088125
            0.44453796    0.81377028525955
 s    1 1.00
            0.12194962                   1
 p    1 1.00
                   0.8                   1

18 0
 s    3 1.00
             13.010701   0.033485484812989
             1.9622572    0.23472187088125
            0.44453796    0.81377028525955
 s    1 1.00
            0.12194962                   1
 p    1 1.00
                   0.8                   1

[5d]
[7f]
[9g]

[MO]
 Sym= A
 Ene=               0
 Spin= Alpha
 Occup=    2.00000
   1     0.007573891395667
   2    -0.00065486538311889
   3    -0.003221609365805
   4    8.738157063705e-05
   5    -0.00021139011858698
   6    -6.4812955553825e-06
   7    -0.00041766505412504
   8     0.002848724725847
   9    5.9845833190065e-05
  10    -0.00010243827239636
  11    -1.1743520709941e-05
  12    3.3197706882482e-06
  13    0.00011819506970142
  14    -6.5812342544607e-05
  15    0.0075636750477068
  16    -0.00065576046605731
  17    -0.0032255030743507
  18    0.00010209629796257
  19    0.00020481449562377
  20    -4.7558576425902e-07
  21    -0.00061530060741311
  22    -0.0028130020378714
  23    -2.1936126817574e-05
  24    -0.00010253648763082
  25    -1.0229873136587e-05
  26    -9.5911699560726e-07
  27    0.00012612335175249
  28    4.8981245946948e-05
  29     0.075220227264331
  30    0.0011030525471583
  31    -0.0020991576774005
  32    0.00073443942901519
  33    0.00028531376439192
  34    -2.2083978723971e-05
  35     0.005340294897877
  36    0.00019303600843255
  37    -0.00019013646798956
  38    0.00029576368922132
  39    2.7445743081537e-05
  40    6.9770628457796e-06
  41    -0.00035856599010843
  42    -0.00026005503059211
  43      0.69206553967908
  44     0.023451434489469
  45    0.0018829927814466
  46    7.4869405141294e-06
  47    0.0002140282545264
  48    3.0903498320851e-06
  49    0.00021261157608945
  50    0.0060713911164654
  51    8.7679337477417e-05
  52    -0.00061619098105587
  53    -5.8338191129186e-05
  54    9.8200538056161e-06
  55    0.00052762832720467
  56    -3.6162996656528e-05
  57     0.075222374128341
  58    0.0011031061480176
  59     -0.00209927232115
  60    -0.00071271944870267
  61    0.00033522308383991
  62    3.1045303860818e-05
  63    -0.0053139007829416
  64    0.00056052557675146
  65    0.00020101358239981
  66    0.0002952383793103
  67    3.4909263014836e-05
  68    -1.4134117562527e-05
  69    -0.00031912479275476
  70    0.00030665837060864
  71    0.0075643286934103
  72    -0.0006557322971703
  73    -0.0032254392886934
  74    -8.7523135483258e-05
  75    0.0002113530824538
  76    6.4858937177914e-06
  77    0.00041705561569929
  78    -0.0028486038272552
  79    -5.9826898833093e-05
  80    -0.00010242774095006
  81    -1.1740501039515e-05
  82    3.319249653501e-06
  83    0.00011814043246992
  84    -6.5791637724812e-05
  85    0.0075722735145062
  86    -0.0006549004612693
  87    -0.0032217751234619
  88    -0.00010194439013778
  89    -0.0002048695361808
  90    4.696581373996e-07
  91    0.0006158934891423
  92    0.0028131131328895
  93    2.1918258701035e-05
  94    -0.00010254947560725
  95    -1.0230857807341e-05
  96    -9.5938918516479e-07
  97    0.00012618699404409
  98    4.8990739738794e-05
  99     0.075277001806866
 100    0.0011039074688058
 101    -0.002089506270128
 102    -0.0007353423657537
 103    -0.00028563277469841
 104     2.21104858279e-05
 105    -0.0053334997974666
 106    -0.0001969119389001
 107    0.00018981998743011
 108    0.00029622570753732
 109    2.7463867341809e-05
 110    6.9852913433829e-06
 111    -0.0003585700563805
 112    -0.00026064918208278
 113      0.69285581545557
 114     0.023481733724424
 115    0.0018688857394495
 116    -7.4738437992447e-06
 117    -0.0002132841966656
 118    -3.0816429573338e-06
 119    -0.00021196793354535
 120    -0.0060514669008314
 121    -8.738946757927e-05
 122    -0.00061779528902507
 123    -5.8408477384329e-05
 124    9.8746503729768e-06
 125    0.00052686879303263
 126    -3.6096658751052e-05
 127     0.075287538247122
 128    0.0011042704654365
 129    -0.0020897637031141
 130    0.00071359471766489
 131    -0.00033560656766239
 132    -3.1082946242241e-05
 133    0.0053067538806914
 134    -0.00056386217566889
 135    -0.00020081564723603
 136    0.00029568710526536
 137    3.4945250544011e-05
 138    -1.4168869097445e-05
 139    -0.00031905269542463
 140    0.00030725221684583
 141    0.00048013433975727
 142    0.00094415663640933
 143    -2.7713962757595e-05
 144    -0.00012544812749475
 145    -9.6678730210013e-07
 146    0.00048021506338548
 147    0.00094440581343828
 148    -1.8848025705087e-05
 149    0.00012694068638072
 150    2.6756577454783e-06
 151    -0.00011870765637304
 152    0.00050938361003343
 153    -0.00047820981511954
 154    -5.3722817845606e-05
 155    1.6453371095106e-05
 156    -0.00011872036640277
 157    0.00050937010310747
 158    0.00047330117387558
 159    -8.6537152629755e-05
 160    -1.8478667576847e-05
 161    0.00048021221856327
 162    0.00094440975779519
 163    2.7682437568633e-05
 164    0.0001253386615443
 165    9.6687513569023e-07
 166    0.00048013855172744
 167    0.00094415697288296
 168    1.8869844453606e-05
 169    -0.00012705354376668
 170    -2.6801094929344e-06
 171    -0.00011953616487388
 172    0.00050706409910206
 173    0.00047827389911542
 174    5.3948526591377e-05
 175    -1.6451140187784e-05
 176    -0.00011956362360384
 177    0.00050712211392203
 178    -0.00047334361931853
 179    8.6755234591565e-05
 180    1.8484061278128e-05
 Sym= A
 Ene=               1
 Spin= Alpha
 Occup=    2.00000
   1     -0.01667658542797
   2    -0.0010269697237237
   3    -0.0050302435124639
   4    8.5821836437593e-05
   5    1.7181380848348e-06
   6    -3.0779649031626e-06
   7     0.001032109312904
   8    2.7621324704473e-05
   9    -3.6911630942311e-05
  10    -1.6313093798183e-05
  11    1.0178800930584e-06
  12    -2.0473397422626e-07
  13    -4.0870398219164e-05
  14    3.5660694907866e-05
  15     0.016699123665335
  16    0.0010265629608847
  17    0.0050268520801727
  18    -8.5322511236406e-05
  19    7.8163110790849e-06
  20    3.2092063402457e-06
  21    -0.0010285374673411
  22    9.5509677522096e-05
  23    3.8714434940496e-05
  24    1.6162136327626e-05
  25    -1.6694222354725e-07
  26    -2.2302732471711e-06
  27    4.5552456076577e-05
  28    2.9720925293489e-05
  29      0.10116454030425
  30    0.0027153407094465
  31     0.006236079057059
  32    0.00077235560339679
  33    0.00026829083342739
  34    -2.3723947174869e-05
  35    -0.0068239755095983
  36    0.0045172149592127
  37    0.00031779589069181
  38    0.00032046983083197
  39    1.1185899477511e-05
  40    9.9162846009036e-06
  41    1.8777273776951e-05
  42    -0.00052345090614646
  43      0.68568580181809
  44     0.026114699537799
  45    -0.007185057654619
  46    -2.1811674861006e-05
  47    -0.00062291795740681
  48    -8.9968277964768e-06
  49    -0.00072403831795496
  50    -0.020671602944657
  51    -0.00029850907738395
  52    -0.0013756384573927
  53    -5.9066066157728e-05
  54    4.7055209687352e-05
  55    -0.00072998051116949
  56    5.2058836777128e-05
  57      0.10116747339984
  58    0.0027153942001888
  59    0.0062357856975827
  60    -0.00075173610130604
  61    0.00032086258958058
  62    3.223174799292e-05
  63    0.0071235111507319
  64    0.0040363271875646
  65    -0.00019427277753851
  66    0.00031950936604929
  67    2.4865136012959e-05
  68    -2.8779868501588e-05
  69    9.1060520333855e-05
  70    0.00051520636016597
  71     0.016701852423541
  72    0.0010266419069528
  73    0.0050271054823156
  74    8.5662294729662e-05
  75    1.9214097591282e-06
  76    -3.0684578250871e-06
  77    0.0010328563364548
  78    2.4376781915237e-05
  79    -3.6983429717186e-05
  80    1.6218113216008e-05
  81    -1.0302254104703e-06
  82    2.0926553476718e-07
  83    4.0997799828656e-05
  84    -3.5776688709776e-05
  85    -0.016672124380912
  86    -0.0010268607250379
  87    -0.0050305656546649
  88    -8.5512344907549e-05
  89    7.6412234372278e-06
  90    3.2134172962613e-06
  91    -0.0010278203959175
  92    9.8550465434213e-05
  93    3.8733389692246e-05
  94    -1.6248357394145e-05
  95    1.5870003532435e-07
  96    2.2271780119213e-06
  97    -4.5415354690029e-05
  98    -2.9619305840095e-05
  99     -0.10100016534724
 100    -0.0027111808509302
 101    -0.0062395885448195
 102    0.00077159335044813
 103    0.00026796263354204
 104    -2.3700760421607e-05
 105    -0.006829926043498
 106    0.0045168981098261
 107    0.0003180124054332
 108    -0.00032026374196228
 109    -1.1161864470013e-05
 110    -9.9049152808098e-06
 111    -1.9175391917426e-05
 112    0.00052315931677923
 113     -0.68491955091932
 114    -0.026089043681939
 115    0.0071881462816858
 116    -2.1814743579793e-05
 117    -0.00062312060605267
 118    -8.9969347242886e-06
 119    -0.00072368708055056
 120    -0.020678092875165
 121    -0.0002986469879936
 122    0.0013750064439633
 123    5.900563554453e-05
 124    -4.7045397133868e-05
 125    0.00073053011895775
 126    -5.2106941193277e-05
 127     -0.10101832595608
 128    -0.0027118434373622
 129    -0.006239988536025
 130    -0.00075097578051217
 131    0.00032047490219244
 132    3.2200553020812e-05
 133    0.0071295265667174
 134    0.0040351666173449
 135    -0.00019452151645981
 136    -0.00031927985024298
 137    -2.4834075989712e-05
 138    2.8768926376477e-05
 139    -9.1405507487012e-05
 140    -0.00051486694395757
 141    9.6796686321661e-05
 142    0.0002370978296119
 143    3.3173780512915e-05
 144    0.00010820603880829
 145    4.9974954558576e-07
 146    -9.6280318511732e-05
 147    -0.00023599580758904
 148    -2.5548217257608e-05
 149    0.00011038222118451
 150    2.6579719516113e-06
 151    -0.00095826570935647
 152    -0.0020477323852207
 153    -3.8919424271965e-05
 154    -0.00014072230144381
 155    -8.0228936887583e-07
 156    -0.00095827086418165
 157    -0.0020477256859249
 158    2.8979286081596e-05
 159    -0.0001430686351462
 160    -3.2957586539956e-06
 161    -9.6282233291934e-05
 162    -0.00023597755484768
 163    3.3202702494559e-05
 164    0.00010835573612811
 165    5.0106118041101e-07
 166    9.677257487447e-05
 167    0.00023709074423386
 168    -2.5521158233279e-05
 169    0.00011022817979583
 170    2.6546455651885e-06
 171    0.00095791765620414
 172    0.0020485353758449
 173    -3.8405332786501e-05
 174    -0.00014076158091859
 175    -8.1998457803723e-07
 176    0.00095794142885446
 177    0.0020484169367609
 178    2.8456909629835e-05
 179    -0.00014304844867543
 180    -3.2783554188716e-06
 Sym= A
 Ene=               2
 Spin= Alpha
 Occup=    2.00000
   1      0.30004553092739
   2    0.0091237890967703
   3    -0.0011577901286042
   4    0.00048780342819938
   5    4.7054257765926e-05
   6    -1.6908285818676e-05
   7    -0.00016127334922673
   8    -0.0016186506782922
   9    -1.9592099726414e-05
  10    -0.00014408535312809
  11    -1.3516391421896e-05
  12    8.4800723142177e-06
  13    5.7880549360854e-05
  14    -0.00015091296475356
  15      0.30136957365321
  16    0.0091678203436924
  17    -0.001332797693385
  18    0.00048677383066103
  19    -8.4916735302156e-05
  20    -1.8942417393918e-05
  21    2.6294327379963e-05
  22    0.0016458750892044
  23    2.4906279008045e-05
  24    -0.00014449382595511
  25    -9.6236410483359e-06
  26    -2.429282041213e-06
  27    7.7334914271196e-05
  28    0.0001424023502591
  29       0.3963322837864
  30     0.013228202640146
  31    -0.0038960133040792
  32    -0.00025391890426424
  33    0.00033033615370743
  34    1.4374244238491e-05
  35    -0.003210099772268
  36    -0.0033011396931174
  37     6.42605427756e-05
  38    -0.00058522983048508
  39    -2.8923834661785e-05
  40    1.4067932398005e-05
  41    -0.0001621903381522
  42    0.00012231438434288
  43    -5.1125918832268e-05
  44    -3.7059173476208e-06
  45    -2.0201106981294e-05
  46    -0.00064656503171443
  47    2.1895093179297e-05
  48    2.3730672014386e-05
  49    -0.0044517704681371
  50    0.00016120950904445
  51    0.00016355554644793
  52    9.3289105368957e-07
  53    -1.0219680919686e-05
  54    2.8951103984955e-05
  55    -5.4195189410397e-05
  56    -0.00077723895024069
  57     -0.39568970590599
  58    -0.013206997139845
  59    0.0038907844636327
  60    -0.00027565104531628
  61    -0.00031171641290556
  62    5.075566365591e-06
  63    -0.0029690587882484
  64    0.0035105758541465
  65    0.00016253587762476
  66    0.00058416522380541
  67    3.1774603629155e-05
  68    -2.223219809621e-05
  69    0.00017728460446388
  70    9.7680774877502e-05
  71     -0.30078463788922
  72    -0.0091501456281882
  73    0.0013251449260054
  74    0.0004909604210826
  75    5.1588259783718e-05
  76    -1.6949901271184e-05
  77    -8.9427796791592e-05
  78    -0.0016396988256907
  79    -2.2519753632706e-05
  80    0.00014427950933664
  81    1.3476943119437e-05
  82    -8.5081663834212e-06
  83    -5.6487639687565e-05
  84    0.00015095394994848
  85     -0.29898176450204
  86     -0.00908925345365
  87    0.0011669641657087
  88    0.00048196555516972
  89    -7.9919576946741e-05
  90    -1.8691730308438e-05
  91    -4.2557694349512e-05
  92    0.0016231461738588
  93    2.7039850318752e-05
  94    0.00014398986359284
  95    9.6456012653237e-06
  96    2.4041732901366e-06
  97    -7.8075416807878e-05
  98    -0.00014097580325523
  99     -0.39141712521051
 100    -0.013042777231484
 101    0.0040520437059064
 102    -0.00024692638228484
 103    0.00032988895649346
 104    1.4118919572762e-05
 105    -0.0031804569188428
 106    -0.0032101403706382
 107    6.4603625900592e-05
 108    0.00057819936684039
 109    2.8556668951056e-05
 110    -1.3900518545384e-05
 111    0.00016065633756413
 112    -0.0001211050339048
 113    -0.00020363422324092
 114    -1.1387620337944e-05
 115    2.7942646019003e-05
 116    -0.00064697135972553
 117    2.2539278123751e-05
 118    2.3756161877357e-05
 119    -0.0041840840622786
 120    0.00016184522161979
 121    0.00015387271217695
 122    6.4241908444677e-08
 123    1.0256764143869e-05
 124    -2.8834411052213e-05
 125    5.3368794890409e-05
 126    0.00077363916889844
 127      0.39291349241064
 128     0.013097111302579
 129    -0.004090527244388
 130    -0.00027139785466173
 131    -0.0003122034423229
 132    4.9173958354243e-06
 133    -0.0029594428648309
 134    0.0034075967203709
 135    0.00016057332472082
 136    -0.0005800781671482
 137    -3.1559034140124e-05
 138    2.2054900272841e-05
 139    -0.00017573301034465
 140    -9.6606347685897e-05
 141    -0.00084634209138338
 142    0.00073066502484721
 143    0.00018875703326786
 144    -7.612723995965e-05
 145    -8.0242984482587e-06
 146    -0.00085406532678679
 147    0.00072983124595624
 148    0.00019257673536321
 149    6.5341281072704e-05
 150    -5.9388203209575e-06
 151    -0.00058385433257057
 152    0.0032505341153794
 153    0.00030971272736577
 154    0.00045761191422059
 155    -4.014830904422e-06
 156    0.00058255722773629
 157    -0.0032475209647077
 158    0.00027652086336317
 159    -0.00047690231050806
 160    -1.7492994348056e-05
 161    0.00085253821729792
 162    -0.00072843822100208
 163    0.0001870204537236
 164    -7.8521701194553e-05
 165    -7.9989127664002e-06
 166    0.00084342080292511
 167    -0.00072781409974447
 168    0.00019286901900534
 169    6.2328141045342e-05
 170    -5.9999534263626e-06
 171    0.00057558685043345
 172    -0.0032212958960683
 173    0.00030794991403286
 174    0.00045040162356333
 175    -4.0624204262453e-06
 176    -0.00058073919299128
 177    0.0032238664646907
 178    0.00027634893332096
 179    -0.00047247724408321
 180    -1.7417419067767e-05
 Sym= A
 Ene=               3
 Spin= Alpha
 Occup=    2.00000
   1      0.31293665439457
   2    0.0099710358044611
   3    -8.4107257736471e-05
   4    0.00034892852991253
   5    -3.1670257261204e-06
   6    -1.2673194252818e-05
   7    -0.00078215829549695
   8    -0.0011893514830649
   9    9.6097713889458e-06
  10    -7.388250456722e-05
  11    -1.1805741413383e-05
  12    8.6688902983417e-06
  13    9.9252854138053e-05
  14    -0.00022688977433755
  15      0.31334732494347
  16    0.0099854595692163
  17    2.7228102014086e-05
  18    0.0003488604883858
  19    -2.1399386504562e-05
  20    -1.2955552025814e-05
  21    -0.00073838455073953
  22    0.0012294166537112
  23    4.6029134549232e-05
  24    -7.4681736406653e-05
  25    -6.0433777363729e-06
  26    -7.647304158465e-06
  27    0.00012944506804666
  28    0.00021140187016927
  29      0.37823798721159
  30      0.01330835016075
  31    -0.007509576687127
  32    -0.00050330600453604
  33    0.00012369380418537
  34    2.0147783153922e-05
  35    -0.0024058928119587
  36    0.0019637242053517
  37    0.0001178801431589
  38    -0.00050853206706909
  39    -3.1215314856829e-05
  40    1.4728599269793e-05
  41    -2.4931867524426e-05
  42    -1.3210057673634e-05
  43     -0.08919549055681
  44    -0.0053473685778232
  45    0.0024794257462311
  46    -6.4505287023325e-06
  47    -0.0002063334683435
  48    -3.0072744238115e-06
  49    -7.656270210604e-05
  50    -0.0037413156580327
  51    -5.6000759814986e-05
  52    0.00034655736662107
  53    2.9031733084693e-05
  54    -6.927523701091e-06
  55    -0.00019476511695802
  56    1.4940811263668e-05
  57       0.3806755743865
  58     0.013396377734433
  59    -0.0074545654300977
  60    0.0005136048898483
  61    8.9495903464675e-05
  62    -1.7171662759682e-05
  63    0.0025517240624097
  64    0.0017483111999155
  65    -6.4843933295269e-05
  66    -0.00051207160846377
  67    -3.1002632933336e-05
  68    1.3717379563563e-05
  69    -2.3869468760263e-05
  70    1.6801439997272e-05
  71      0.31481447563401
  72     0.010032448378517
  73    -3.86287879296e-05
  74    -0.00035231824955842
  75    9.1705933661091e-07
  76    1.2759683992126e-05
  77    0.00079756974452289
  78    0.0011890387040823
  79    -1.0177488649946e-05
  80    -7.4949713585741e-05
  81    -1.1865388707642e-05
  82    8.7387027042281e-06
  83    9.8696013662371e-05
  84    -0.00022780001019734
  85      0.31318755882988
  86    0.0099767885464786
  87    -2.5977883517793e-05
  88    -0.0003482072605804
  89    1.9223370142784e-05
  90    1.2899897579051e-05
  91    0.00072300724847408
  92    -0.0012378642896639
  93    -4.559893618313e-05
  94    -7.4506002006648e-05
  95    -6.0741971302728e-06
  96    -7.6599018108146e-06
  97    0.00013038108101594
  98    0.00021116595669144
  99      0.37708947052425
 100      0.01325760638202
 101    -0.0074317948901325
 102    0.00050111491157107
 103    -0.00012501973918782
 104    -2.0090686477754e-05
 105    0.0023965186684853
 106    -0.0019092109709648
 107    -0.00011668832573901
 108    -0.0005067644008065
 109    -3.1055977998743e-05
 110    1.4690721258234e-05
 111    -2.6074669188661e-05
 112    -1.2847810178806e-05
 113    -0.088401612076366
 114    -0.0053074087362835
 115     0.002236188977089
 116    8.2061830146758e-06
 117    0.00020708243705522
 118    2.9569360733328e-06
 119    8.3958486913607e-05
 120    0.0036174016144976
 121    5.3784567046808e-05
 122    0.0003435763391487
 123    2.874711675171e-05
 124    -6.7944246614988e-06
 125    -0.00019306871245755
 126    1.2736532296374e-05
 127      0.37743163969883
 128     0.013276119388118
 129    -0.0073563287401166
 130    -0.00050998464270167
 131    -8.9262360063247e-05
 132    1.7045807789425e-05
 133    -0.0025217754907572
 134    -0.0017133417723956
 135    6.4322865687752e-05
 136    -0.00050724784572461
 137    -3.0687269872449e-05
 138    1.357283278864e-05
 139    -2.4084680022767e-05
 140    1.7153621032674e-05
 141    -0.00085303724324242
 142    0.00081861773788543
 143    0.00024438649279886
 144    -0.00011188882641122
 145    -1.0598187333805e-05
 146    -0.00085284403184126
 147    0.00082100457979845
 148    0.00025221422409802
 149    9.5360316086894e-05
 150    -7.6250193149086e-06
 151    -0.0011362024380523
 152    0.00094758809561238
 153    0.00023909272138593
 154    0.00048974529712699
 155    -9.5505779768421e-07
 156    -0.0011395551710039
 157    0.00096573764319657
 158    -0.00020531850323649
 159    0.00050838628181723
 160    1.5411214422754e-05
 161    -0.00085846027764093
 162    0.00082333583262264
 163    -0.00024516127338522
 164    0.00011375095661333
 165    1.0655716571569e-05
 166    -0.00085231998711785
 167    0.00082054124441106
 168    -0.0002524891347774
 169    -9.3913643096061e-05
 170    7.6600737799119e-06
 171    -0.0011279568886181
 172    0.00095672183392371
 173    -0.00023929666180463
 174     -0.00048827760657
 175    9.8134641412122e-07
 176    -0.0011282600908268
 177    0.0009575800810935
 178    0.00020405146655931
 179    -0.00050444513584859
 180    -1.5301446190999e-05
 Sym= A