18
Properties=species:S:1:pos:R:3:forces:R:3 energy=-2.8611202239990234 free_energy=-2.8611202239990234 pbc="F F F"
C        2.39798893      -0.79173942      -0.09918064       0.00188378       0.00018960      -0.00005356
C        2.44759472       0.62463001      -0.07872460       0.00058566       0.00002933      -0.00001923
C        1.29015904       1.35533122      -0.02537648       0.00250673      -0.00107038      -0.00011006
C        0.02481834       0.70879473       0.01023726       0.00016189      -0.00069833      -0.00002479
C       -1.19223980       1.44094087       0.06575936      -0.00299215      -0.00094414       0.00009745
C       -2.39800121       0.79173779       0.09917885      -0.00018096       0.00006151       0.00001270
C       -2.44758191      -0.62463418       0.07872421      -0.00235876       0.00054479       0.00009853
C       -1.29016931      -1.35532428       0.02537584      -0.00107765       0.00013292       0.00004806
C       -0.02481890      -0.70879402      -0.01023512      -0.00008059       0.00059438       0.00000416
C        1.19225034      -1.44093692      -0.06575843       0.00151134       0.00036621      -0.00005476
H        3.32377718      -1.35901694      -0.14158461       0.00110275      -0.00013626      -0.00003148
H        3.41081941       1.12676349      -0.10567824       0.00140541       0.00015485      -0.00005506
H        1.32149216       2.44288081      -0.00942405      -0.00151780      -0.00048620       0.00004450
H       -1.14742754       2.52802550       0.08121085       0.00150409      -0.00057462      -0.00005676
H       -3.32377460       1.35901609       0.14157879      -0.00149576       0.00029781       0.00005766
H       -3.41082196      -1.12676491       0.10568585      -0.00099243      -0.00002529       0.00001860
H       -1.32149215      -2.44288311       0.00941655       0.00147066       0.00079343      -0.00002171
H        1.14742729      -2.52802682      -0.08120538      -0.00143506       0.00077076       0.00004573
