80
Properties=species:S:1:pos:R:3:forces:R:3 energy=-9.626591682434082 free_energy=-9.626591682434082 pbc="F F F"
C       -9.77868583       1.33396162       0.08543014       0.00297062      -0.00187664      -0.00133890
C       -8.56534561       1.55727403      -0.77782623       0.00297880      -0.00088701       0.00271428
C       -7.68004157       0.57394371      -0.96817828       0.00214314      -0.00170827      -0.00386244
C       -6.39944724       0.62687033      -1.75082559      -0.00234318      -0.00023972      -0.00025606
C       -5.15970514       0.50272942      -0.83430783      -0.00158083       0.00309324      -0.00492847
C       -5.11974517      -0.81496826      -0.09564343       0.00059786       0.00438595      -0.00863314
C       -5.71923626      -0.91897857       1.09685515      -0.00108719       0.00588426      -0.00391388
C       -5.77337929      -2.13333779       1.98106760      -0.00534099       0.00226974      -0.00349641
C       -4.61369212      -2.15908018       3.00508808       0.00073779      -0.00273512      -0.00132287
C       -3.25319419      -2.32662904       2.37092802       0.00625730       0.00044587       0.00743961
C       -2.57815389      -1.24854165       1.95266423       0.00104523      -0.00073576      -0.00081253
C       -1.20445170      -1.20385574       1.34953874       0.00403643      -0.00095518       0.00754732
C       -1.04162740      -0.08824779       0.30530051      -0.00136338      -0.00257683       0.00432539
C        0.37109704       0.01812614      -0.19182556      -0.00114131      -0.00690484       0.00295287
C        1.22328895       1.03746063      -0.05612241       0.00196910       0.00057745      -0.00500447
C        2.62016711       0.95418075      -0.62038107       0.00113893       0.00077727      -0.00324166
C        3.72892015       1.21702273       0.41081941       0.00124931       0.00087148       0.00088608
C        5.08975662       0.93151768      -0.15022767      -0.00237894      -0.00013930      -0.00216353
C        6.11651043       1.77572509      -0.29346043      -0.00154662       0.00272012       0.00248975
C        7.45921853       1.35479633      -0.84838245      -0.00427413       0.00358599      -0.00220323
C        7.64555167      -0.13614553      -1.16321957      -0.00036144       0.00133133      -0.00068983
C        8.99132474      -0.39979602      -1.77186617       0.00101471       0.00329059      -0.00167847
C        9.96972462      -1.19603900      -1.33331212      -0.00022888      -0.00150633      -0.00496376
C        9.90167898      -2.00244330      -0.06597353      -0.00079437       0.00098240      -0.00600958
C       11.25742289      -1.32526013      -2.10579331      -0.00069195      -0.00126636       0.00247693
C        6.04894072       3.24124748       0.05065067      -0.00159735      -0.00169661      -0.00042606
C        0.90863551       2.31352514       0.67505880       0.00046124      -0.00150424      -0.00140990
C       -2.76738297      -3.74165767       2.22323025      -0.00018183       0.00062613       0.00048487
C       -4.45356960      -1.94505168      -0.82332626       0.00066754      -0.00194027      -0.00351248
C       -8.44851037       2.93724604      -1.36240079      -0.00199577      -0.00644533       0.00237133
H       -9.79895435       2.03859747       0.92583396       0.00306582       0.00138592      -0.00223304
H      -10.70182117       1.49640005      -0.48412267       0.00179283       0.00327787      -0.00343737
H       -9.80561460       0.31841247       0.49356967      -0.00258905      -0.00216341      -0.00086898
H       -7.86569084      -0.38018070      -0.47432338       0.00208406       0.00792171       0.00140533
H       -6.38012617      -0.21370579      -2.45800955       0.00381007       0.00290534      -0.00176083
H       -6.32604726       1.53841195      -2.35225893       0.00445915      -0.00013423       0.00571970
H       -5.16227842       1.33790631      -0.11855805       0.00211552      -0.00367729       0.00105048
H       -4.25428789       0.61393284      -1.44340129       0.00281921      -0.00019004       0.00114609
H       -6.16881346      -0.01546438       1.51784141      -0.00329657       0.00380487       0.00055629
H       -5.75529986      -3.06012493       1.39347955       0.00109229      -0.00141931       0.00096262
H       -6.72315770      -2.13409596       2.52819122      -0.00426070       0.00117911       0.00739499
H       -4.64577110      -1.22503233       3.58405900      -0.00244568      -0.00347006      -0.00315785
H       -4.78607256      -2.97407849       3.71675557      -0.00030365       0.00087234       0.00722199
H       -3.05898677      -0.27859045       2.09066331      -0.00035030      -0.00662410       0.00322111
H       -0.47303654      -1.03099914       2.15598836       0.00042730       0.00371889       0.00167380
H       -0.93041716      -2.16494222       0.89628913      -0.00141294       0.00677639      -0.00122173
H       -1.39469112       0.85796129       0.73327326      -0.00206600      -0.00035596       0.00067826
H       -1.70228525      -0.30368557      -0.54769032      -0.00167656      -0.00033820       0.00076777
H        0.74263234      -0.88607762      -0.68316408      -0.00513485      -0.00057511      -0.00213399
H        2.71870401       1.69326437      -1.42926263       0.00251094       0.00567829      -0.00047621
H        2.78206215      -0.03278229      -1.07399428       0.00069230      -0.00161655       0.00074307
H        3.56011426       0.55249096       1.27259458      -0.00017005       0.00011175      -0.00024836
H        3.64378336       2.24131133       0.79149691      -0.00326855      -0.00148784       0.00859761
H        5.20610046      -0.10038316      -0.48282902       0.00066607       0.00473323       0.00011056
H        8.23527969       1.67448026      -0.13892552      -0.00333325      -0.00435763       0.00089995
H        7.65067448       1.93462573      -1.76187483       0.00375527       0.00296101      -0.00268930
H        7.47535395      -0.72951677      -0.25703638       0.00535852       0.00153371       0.00186709
H        6.87331723      -0.44038023      -1.88517267       0.00342248      -0.00210709      -0.00353377
H        9.17600720       0.16336567      -2.69140977      -0.00180212      -0.00167412      -0.00022578
H        8.96029193      -1.86618811       0.46884061      -0.00023140      -0.00310392       0.00390920
H       10.71540301      -1.72321769       0.61388484      -0.00230210      -0.00174844      -0.00010929
H       10.01659776      -3.07187091      -0.27918213      -0.00142429      -0.00017901       0.00261879
H       11.43482220      -2.36612619      -2.40322292      -0.00327373       0.00269507       0.00065389
H       11.25324878      -0.70774947      -3.01053769      -0.00021470      -0.00413889       0.00331608
H       12.11439622      -1.02339200      -1.49127021      -0.00403167       0.00027339      -0.00034901
H        6.16693720       3.85910586      -0.84803245       0.00240404       0.00411297       0.00015040
H        5.10382005       3.52188661       0.51798868       0.00173648      -0.00068068      -0.00104249
H        6.85513446       3.51761930       0.74084028      -0.00105304      -0.00106860      -0.00289432
H        1.27545479       3.17872787       0.11044622      -0.00016139       0.00588920       0.00196405
H        1.40114744       2.33470318       1.65489455       0.00305390      -0.00202796       0.00232631
H       -0.16119235       2.45326992       0.84441658      -0.00234988      -0.00185751      -0.00606423
H       -2.67309897      -4.22408277       3.20385316      -0.00362241       0.00036843      -0.00155033
H       -3.47384855      -4.34977947       1.64239844       0.00208995      -0.00500924      -0.00024019
H       -1.79250788      -3.80361247       1.73521997       0.00071419      -0.00013359      -0.00090602
H       -4.90109297      -2.09631487      -1.81397906       0.00013791      -0.00132341      -0.00331749
H       -4.51139355      -2.88993527      -0.27822761       0.00053529       0.00157871       0.00243478
H       -3.39382768      -1.72497656      -0.99087313       0.00210553      -0.00035200      -0.00195370
H       -9.33351917       3.17834683      -1.96375620       0.00086507      -0.00081121       0.00179170
H       -7.57019307       3.06306299      -1.99888495      -0.00368446      -0.00184757       0.00569198
H       -8.39332693       3.69002029      -0.56637256       0.00238429      -0.00502802      -0.00228014
