102
Properties=species:S:1:pos:R:3:forces:R:3 energy=-21.22666358947754 free_energy=-21.22666358947754 pbc="F F F"
C       -2.80574036       6.97880316      -3.51644663       0.00509515       0.00585577      -0.00352212
C       -3.71731818       5.75761815      -3.61938840       0.00234228       0.00313020      -0.00203420
C       -3.07506494       4.46670893      -3.10555460      -0.00195408      -0.00207996       0.00032610
C       -2.71487207       4.51212352      -1.62033672       0.00071925       0.00009866       0.00052202
C       -2.31407303       3.15831052      -1.02497214      -0.00262511       0.00072277       0.00281477
C       -1.11078435       2.48675069      -1.69013986      -0.00489688       0.00333244       0.00111496
C       -0.68213605       1.23198283      -0.93552696      -0.00346535       0.00326550      -0.00209820
C        0.43695030       0.44746922      -1.61615643      -0.00254166       0.00196719      -0.00098681
O        0.71988459      -0.80100652      -0.98863857      -0.00408775       0.00048065      -0.00269842
C       -0.20134211      -1.79632211      -1.07590026      -0.00204837      -0.00048327       0.00038399
C       -0.00907815      -2.93305630      -0.23575079       0.00015303      -0.00016952       0.00054264
C       -0.66932570      -4.12640944      -0.60684612       0.00254154      -0.00112915      -0.00047708
C       -0.26093354      -5.36621919      -0.08302829       0.00227118       0.00126767       0.00274777
C       -1.00391965      -6.52962301      -0.34674576       0.00432658       0.00369167      -0.00504977
C       -2.10273694      -6.48274468      -1.15935204      -0.00070548       0.00175953       0.00394905
C       -2.47748040      -5.27556070      -1.75341748      -0.00339049      -0.00259042      -0.00138080
C       -1.75125886      -4.09892413      -1.51480673      -0.00210619      -0.00481319       0.00415057
C       -2.07000391      -2.89585525      -2.17641179       0.00117433      -0.00372624       0.00322115
C       -1.24188211      -1.78342333      -1.98538607      -0.00278282      -0.00066018       0.00117208
C       -3.22938987      -2.82696110      -3.05712900       0.00383985       0.00085416      -0.00119060
C       -3.63305890      -1.62963386      -3.68750569      -0.00312674       0.00036931       0.00249374
C       -4.72656732      -1.60209533      -4.52584904      -0.00251079       0.00183110      -0.00088704
C       -5.47076540      -2.76421328      -4.76634555      -0.00170445       0.00198174       0.00587016
C       -5.10001232      -3.93702796      -4.14790697       0.00254059      -0.00188231      -0.00361216
C       -3.99357234      -3.97545814      -3.29786549      -0.00158119       0.00481740       0.00444889
C       -3.65218654      -5.27620014      -2.65113701      -0.00143513      -0.00019741      -0.00365055
O       -4.30867522      -6.28386594      -2.85727249       0.00256157       0.00140023       0.00215274
C        0.92392579      -5.41352588       0.74335304       0.00210203      -0.00391837      -0.00104538
C        1.42950554      -4.21236173       1.27147528      -0.00234532      -0.00220966      -0.00139534
C        0.87485785      -2.96926349       0.89535226      -0.00128007      -0.00047779       0.00028408
C        1.14876606      -1.85142920       1.73894118      -0.00123537      -0.00051999       0.00093436
C        2.15741470      -1.92824805       2.67995441       0.00107861       0.00028610       0.00285125
C        2.89221390      -3.10464090       2.87433954       0.00142586      -0.00016904       0.00179988
C        2.49749203      -4.27462969       2.19281137      -0.00042200       0.00190711      -0.00248098
C        3.12728008      -5.50564386       2.43059492       0.00029790       0.00236034      -0.00408125
C        2.66348467      -6.67664542       1.82695750       0.00080264      -0.00033998       0.00105464
C        1.57024569      -6.63284924       1.00677961       0.00130820      -0.00432874      -0.00013256
C        4.28856253      -5.60303161       3.33959723      -0.00422925      -0.00403495       0.00244268
O        4.86932702      -6.65787998       3.53701441      -0.00114632       0.00217271      -0.00095946
C        4.71228456      -4.33978791       4.01080592       0.00311565      -0.00131130      -0.00501168
C        5.80717522      -4.39478711       4.87452885       0.00065708      -0.00075030      -0.00106037
C        6.25413330      -3.26199230       5.51631814       0.00015640       0.00072408       0.00039661
C        5.59450271      -2.04672657       5.29161313       0.00062370      -0.00024986      -0.00181043
C        4.51035139      -1.98339362       4.44344010       0.00046349       0.00056368       0.00025463
C        4.03490925      -3.13571665       3.78019946       0.00232553      -0.00193310       0.00149238
O        0.32109704      -0.78236127       1.61546712      -0.00176768       0.00026689      -0.00047620
C        0.60767161       0.41211422       2.33562167      -0.00115752      -0.00086784       0.00101602
C        1.81492311       1.19228081       1.80849756      -0.00092959       0.00086683      -0.00107455
C        1.97314676       2.55048712       2.50293520       0.00232640       0.00099266       0.00168681
C        1.08009124       3.66879930       1.95030673       0.00139010       0.00400186       0.00009769
C        1.56210947       4.21165564       0.59796139       0.00036091       0.00245291      -0.00276387
C        0.72338552       5.36200298       0.01693345       0.00154781       0.00031447      -0.00207651
C        1.15109310       6.77769897       0.42541293       0.00409853      -0.00423396      -0.00115114
C        1.07727955       7.08699145       1.91822539      -0.00065026      -0.00035042      -0.00316584
H       -1.86213198       6.81262524      -4.04938635       0.00315870      -0.00071854      -0.00418338
H       -2.55985002       7.21214358      -2.47497592      -0.00098778       0.00039770      -0.00170469
H       -3.28054027       7.86568148      -3.94785400      -0.00264126       0.00436057      -0.00243795
H       -4.01765468       5.61729127      -4.66489016       0.00036584      -0.00379014      -0.00167976
H       -4.64212501       5.94658867      -3.05775472       0.00033493       0.00158463      -0.00454310
H       -3.76593442       3.62938300      -3.27794216      -0.00464751      -0.00450683      -0.00024166
H       -2.17580437       4.24778155      -3.69874256       0.00429474       0.00284692       0.00799585
H       -3.57323238       4.90593233      -1.05839922       0.00297067      -0.00133368      -0.00078594
H       -1.89379504       5.22590658      -1.46219447      -0.00353782       0.00400158       0.00440598
H       -3.17125135       2.47112757      -1.07541310      -0.00059282      -0.00172524       0.00126894
H       -2.09428683       3.29797795       0.04342429       0.00217822      -0.00180100       0.00332625
H       -0.27151209       3.19644966      -1.74311984      -0.00316193      -0.00098741       0.00127412
H       -1.35790202       2.23337684      -2.73122196       0.00086714      -0.00269273       0.00239591
H       -1.55121228       0.57623816      -0.78743547      -0.00171062      -0.00361586      -0.00390082
H       -0.36121759       1.51016385       0.07308641      -0.00071335       0.00227506       0.00052229
H        1.38121420       0.99847013      -1.56154667       0.00097353       0.00174125       0.00034057
H        0.23339725       0.28122831      -2.68263058      -0.00002220      -0.00652492       0.00089188
H       -0.73662027      -7.47738521       0.11245892       0.00005356       0.00580133      -0.00069990
H       -2.69643573      -7.36790330      -1.36979929       0.00634718      -0.00014051      -0.00187697
H       -1.41029515      -0.89167242      -2.57331192       0.00071566       0.00168085      -0.00109942
H       -3.09423086      -0.70042035      -3.51468680       0.00027025      -0.00551578      -0.00289920
H       -5.01056676      -0.66863214      -5.00453202      -0.00216370       0.00512104       0.00042173
H       -6.33093572      -2.73684377      -5.42861748       0.00135334      -0.00244074       0.00211248
H       -5.65048760      -4.86153074      -4.29723500       0.00193895      -0.00259697      -0.00369797
H        2.36383763      -1.06333982       3.29743436      -0.00072437       0.00044163       0.00271182
H        3.18185329      -7.60758594       2.03868504       0.00169683       0.00144658      -0.00165450
H        1.23136535      -7.55432449       0.54183035      -0.00128613      -0.00313736      -0.00122011
H        6.28685209      -5.35936902       5.01493710       0.00251755       0.00202764       0.00028597
H        7.10764404      -3.30743685       6.18601577      -0.00007482       0.00072780       0.00324869
H        5.93882187      -1.14415792       5.78972536      -0.00613221       0.00011814       0.00206685
H        4.03421021      -1.01768787       4.29232044      -0.00007210      -0.00087090      -0.00407725
H        0.71546211       0.18199963       3.40466396       0.00370333       0.00300753       0.00306461
H       -0.30747285       1.00564043       2.23380849      -0.00234374       0.00040397       0.00083897
H        2.72554646       0.60225376       1.95416436      -0.00309242      -0.00582576      -0.00378883
H        1.71600230       1.30833542       0.72400706      -0.00052944       0.00474706      -0.00183570
H        3.01949327       2.87568509       2.42913679       0.00122360       0.00129063       0.00435654
H        1.77266771       2.41260526       3.57374933       0.00316624      -0.00210994       0.00211500
H        1.03990936       4.48690020       2.67786495      -0.00262922       0.00046410       0.00106730
H        0.04440602       3.31021680       1.84759170       0.00061782      -0.00051659       0.00392409
H        1.57988864       3.38323819      -0.12327490      -0.00847132       0.00141396      -0.00330003
H        2.60786645       4.54000287       0.68928116       0.00161915       0.00248601       0.00758041
H       -0.33496591       5.20176935       0.27762100       0.00017473       0.00394615      -0.00452030
H        0.78125008       5.31147748      -1.07977264       0.00717059      -0.00051179       0.00017904
H        2.18000297       6.94491703       0.08104828       0.00361236       0.00066034      -0.00260262
H        0.52894753       7.50031798      -0.11793843       0.00295836      -0.00644759       0.00523037
H        0.07543269       6.88901166       2.31966526       0.00113071      -0.00414037      -0.00095721
H        1.79666969       6.49267668       2.49223236      -0.00285226      -0.00070427      -0.00087829
H        1.30575831       8.14060533       2.10827675      -0.00254730      -0.00064513      -0.00098903
